data_Ib3
_pd_block_id  2013-08-16T14:03|Ib3|VonDreeleRobert|CAD-4
_audit_creation_method  "created in GSAS-II"
_audit_creation_date  2013-08-16T14:03
_audit_author_name  "Von Dreele, Robert"
_audit_update_record
   "2013-08-16T14:03  Initial software-generated CIF"
_pd_proc_info_datetime  2013-08-16T14:03
_pd_calc_method  "Rietveld Refinement"
_computing_structure_refinement  "GSAS-II (Toby & Von Dreele, 2013)"
_refine_ls_number_parameters  10
_refine_ls_goodness_of_fit_all  41.912

# OVERALL WEIGHTED R-FACTOR
_refine_ls_wR_factor_obs  0.07258
_refine_ls_matrix_type  full

# phase info for H3OSbF6 follows
_pd_phase_name  H3OSbF6
_cell_length_a  10.13996
_cell_length_b  10.13996
_cell_length_c  10.13996
_cell_angle_alpha  90
_cell_angle_beta   90
_cell_angle_gamma  90
_cell_volume  1042.578
_symmetry_cell_setting  cubic
_symmetry_space_group_name_H-M  "I b 3"
loop_
    _space_group_symop_id
    _space_group_symop_operation_xyz
     1  x,y,z
     2  z,x,y
     3  y,z,x
     4  x,1/2+y,1/2-z
     5  1/2-z,x,1/2+y
     6  1/2+y,1/2-z,x
     7  1/2-z,1/2+x,-y
     8  -y,1/2-z,1/2+x
     9  1/2+y,-z,1/2-x
    10  1/2-x,1/2+y,-z
    11  -z,1/2-x,1/2+y
    12  1/2+x,-y,1/2-z
    13  -x,-y,-z
    14  -z,-x,-y
    15  -y,-z,-x
    16  -x,1/2-y,1/2+z
    17  1/2+z,-x,1/2-y
    18  1/2-y,1/2+z,-x
    19  1/2+z,1/2-x,y
    20  y,1/2+z,1/2-x
    21  1/2-y,z,1/2+x
    22  1/2+x,1/2-y,z
    23  z,1/2+x,1/2-y
    24  1/2-x,y,1/2+z
    25  1/2+x,1/2+y,1/2+z
    26  1/2+z,1/2+x,1/2+y
    27  1/2+y,1/2+z,1/2+x
    28  1/2+x,y,-z
    29  -z,1/2+x,y
    30  y,-z,1/2+x
    31  -z,x,1/2-y
    32  1/2-y,-z,x
    33  y,1/2-z,-x
    34  -x,y,1/2-z
    35  1/2-z,-x,y
    36  x,1/2-y,-z
    37  1/2-x,1/2-y,1/2-z
    38  1/2-z,1/2-x,1/2-y
    39  1/2-y,1/2-z,1/2-x
    40  1/2-x,-y,z
    41  z,1/2-x,-y
    42  -y,z,1/2-x
    43  z,-x,1/2+y
    44  1/2+y,z,-x
    45  -y,1/2+z,x
    46  x,-y,1/2+z
    47  1/2+z,x,-y
    48  -x,1/2+y,z

# ATOMIC COORDINATES AND DISPLACEMENT PARAMETERS
loop_ 
	_atom_site_label
	_atom_site_type_symbol
	_atom_site_fract_x
	_atom_site_fract_y
	_atom_site_fract_z
	_atom_site_occupancy
	_atom_site_adp_type
	_atom_site_U_iso_or_equiv
	_atom_site_symmetry_multiplicity
Sb     Sb   0.00000     0.00000     0.00000     1.000      Uiso 0.0160(5)  8   
O      O    0.25000     0.25000     0.25000     1.000      Uiso 0.036(4)   8   
F      F    0.0600(6)   0.1401(6)   0.3955(6)   1.01(2)    Uiso 0.030(2)   48  

loop_  _atom_type_symbol _atom_type_number_in_cell
  F    48.42
  O    8
  Sb   8

# Note that Z affects _cell_formula_sum and _weight
_cell_formula_units_Z  8
_chemical_formula_sum  "F6.053 O Sb"
_chemical_formula_weight  252.73

# MOLECULAR GEOMETRY
loop_
	_geom_bond_atom_site_label_1
	_geom_bond_atom_site_label_2
	_geom_bond_distance
	_geom_bond_site_symmetry_1
	_geom_bond_site_symmetry_2
	_geom_bond_publ_flag
  Sb     F      1.874(6)     1_555   33_555 yes
  Sb     F      1.874(6)     1_555   34_555 yes
  Sb     F      1.874(6)     1_555   35_555 yes
  Sb     F      1.874(6)     1_555   45_545 yes
  Sb     F      1.874(6)     1_555   46_554 yes
  Sb     F      1.874(6)     1_555   47_455 yes
  F      Sb     1.874(6)     1_555   30_555 yes

loop_
	_geom_angle_atom_site_label_1
	_geom_angle_atom_site_label_2
	_geom_angle_atom_site_label_3
	_geom_angle
	_geom_angle_site_symmetry_1
	_geom_angle_site_symmetry_2
	_geom_angle_site_symmetry_3
	_geom_angle_publ_flag
  F      Sb     F      90.0(3)      33_555  1_555   34_555 yes
  F      Sb     F      90.0(3)      33_555  1_555   35_555 yes
  F      Sb     F      90.0(3)      34_555  1_555   35_555 yes
  F      Sb     F      180          33_555  1_555   45_545 yes
  F      Sb     F      90.0(3)      34_555  1_555   45_545 yes
  F      Sb     F      90.0(3)      35_555  1_555   45_545 yes
  F      Sb     F      90.0(3)      33_555  1_555   46_554 yes
  F      Sb     F      180          34_555  1_555   46_554 yes
  F      Sb     F      90.0(3)      35_555  1_555   46_554 yes
  F      Sb     F      90.0(3)      45_545  1_555   46_554 yes
  F      Sb     F      90.0(3)      33_555  1_555   47_455 yes
  F      Sb     F      90.0(3)      34_555  1_555   47_455 yes
  F      Sb     F      180          35_555  1_555   47_455 yes
  F      Sb     F      90.0(3)      45_545  1_555   47_455 yes
  F      Sb     F      90.0(3)      46_554  1_555   47_455 yes

# STRUCTURE FACTOR TABLE
loop_
	_refln_index_h
	_refln_index_k
	_refln_index_l
	_refln_F_squared_meas
	_refln_F_squared_sigma
	_refln_F_squared_calc
	_refln_phase_calc
  2    0    0    1.2696e5     1.44e3     1.7414e5     0.0     
  2    1    1    230.9        12.3       118.0        0.0     
  2    2    0    1.3504e5     1.65e3     1.5594e5     0.0     
  2    2    2    7.255e4      7.9e2      7.203e4      0.0     
  3    1    2    169.9        15.6       6.4          180.0   
  3    2    1    6862         94         6471         180.0   
  3    3    2    14045        170        12657        180.0   
  4    0    0    2.999e4      3.2e2      3.116e4      0.0     
  4    0    2    4.020e4      4.4e2      4.509e4      0.0     
  4    1    1    7635         103        7966         0.0     
  4    1    3    1080         25         859          180.0   
  4    2    0    3.069e4      3.4e2      3.132e4      0.0     
  4    2    2    9.844e4      1.04e3     9.675e4      0.0     
  4    3    1    6015         93         6319         0.0     
  4    3    3    1134         29         902          180.0   
  4    4    0    9.839e4      1.08e3     1.1489e5     0.0     
  4    4    2    6.941e4      7.4e2      7.005e4      0.0     
  4    4    4    6.752e4      8.1e2      6.535e4      0.0     
  5    1    2    255          20         224          0.0     
  5    1    4    1433         34         926          180.0   
  5    2    1    1507         30         1123         180.0   
  5    2    3    645          28         414          180.0   
  5    3    2    1216         33         1029         180.0   
  5    3    4    275          30         11           180.0   
  5    4    1    2316         45         2875         180.0   
  5    4    3    1586         39         1433         180.0   
  5    5    2    465          28         254          0.0     
  5    5    4    980          36         1138         0.0     
  6    0    0    3.073e4      3.4e2      2.959e4      0.0     
  6    0    2    7.648e4      8.2e2      8.360e4      0.0     
  6    0    4    6.017e4      6.8e2      6.941e4      0.0     
  6    1    1    2121         39         2567         0.0     
  6    1    3    201          26         153          0.0     
  6    1    5    1005         35         858          180.0   
  6    2    0    5.631e4      6.3e2      6.283e4      0.0     
  6    2    2    4.902e4      5.5e2      5.078e4      0.0     
  6    2    4    5.981e4      6.6e2      6.174e4      0.0     
  6    3    1    917          31         1157         0.0     
  6    3    3    715          31         1408         0.0     
  6    3    5    299          29         254          180.0   
  6    4    0    4.118e4      4.9e2      4.162e4      0.0     
  6    4    2    5.003e4      5.7e2      4.906e4      0.0     
  6    4    4    2.399e4      3.0e2      2.524e4      0.0     
  6    5    1    3495         65         2454         180.0   
  6    5    3    781          35         1063         0.0     
  6    5    5    609          35         941          0.0     
  6    6    0    3.406e4      4.1e2      3.676e4      0.0     
  6    6    2    2.355e4      3.0e2      2.366e4      0.0     
  6    6    4    2.894e4      3.5e2      3.072e4      0.0     
  6    6    6    2.613e4      4.5e2      2.451e4      0.0     
  7    1    2    2831         60         3206         0.0     
  7    1    4    879          39         140          180.0   
  7    1    6    1853         54         1143         180.0   
  7    2    1    1384         43         1648         0.0     
  7    2    3    4434         92         5086         0.0     
  7    2    5    1255         49         922          0.0     
  7    3    2    267          40         3            0.0     
  7    3    4    346          40         140          180.0   
  7    3    6    384          53         0            180.0   
  7    4    1    26           41         20           180.0   
  7    4    3    164          37         11           0.0     
  7    4    5    181          47         346          0.0     
  7    5    2    310          35         161          180.0   
  7    5    4    48           42         23           0.0     
  7    5    6    264          51         115          0.0     
  7    6    1    464          38         605          180.0   
  7    6    3    1754         55         1515         180.0   
  7    6    5    414          43         133          180.0   
  7    7    2    319          58         97           180.0   
  7    7    4    357          59         167          0.0     
  7    7    6    485          66         53           0.0     
  8    0    0    4.921e4      5.7e2      5.112e4      0.0     
  8    0    2    3.717e4      4.6e2      3.472e4      0.0     
  8    0    4    3.914e4      4.9e2      4.203e4      0.0     
  8    0    6    2.419e4      3.4e2      2.545e4      0.0     
  8    1    1    547          34         454          180.0   
  8    1    3    53           49         5            0.0     
  8    1    5    6            51         15           0.0     
  8    1    7    68           81         1            0.0     
  8    2    0    4.248e4      5.0e2      4.377e4      0.0     
  8    2    2    4.253e4      5.1e2      4.262e4      0.0     
  8    2    4    2.213e4      3.1e2      2.106e4      0.0     
  8    2    6    2.707e4      3.7e2      2.546e4      0.0     
  8    3    1    2338         58         1468         180.0   
  8    3    3    203          40         164          0.0     
  8    3    5    41           42         102          0.0     
  8    3    7    62           60         21           180.0   
  8    4    0    3.982e4      5.0e2      4.053e4      0.0     
  8    4    2    2.292e4      3.3e2      2.365e4      0.0     
  8    4    4    2.315e4      3.4e2      2.114e4      0.0     
  8    4    6    1.916e4      3.0e2      1.636e4      0.0     
  8    5    1    652          42         248          180.0   
  8    5    3    229          48         477          0.0     
  8    5    5    14           64         59           0.0     
  8    5    7    506          70         238          180.0   
  8    6    0    1.377e4      2.4e2      1.204e4      0.0     
  8    6    2    2.275e4      3.4e2      2.235e4      0.0     
  8    6    4    2.128e4      3.2e2      2.224e4      0.0     
  8    6    6    2.189e4      3.4e2      1.980e4      0.0     
  8    7    1    -25          82         66           0.0     
  8    7    3    30           82         187          0.0     
  8    7    5    287          66         1            180.0   
  8    8    0    1.759e4      3.7e2      1.471e4      0.0     
  8    8    2    1.695e4      3.6e2      1.559e4      0.0     
  8    8    4    2.167e4      4.2e2      2.074e4      0.0     
  8    8    6    1.144e4      2.7e2      1.049e4      0.0     
  9    1    2    491          38         518          0.0     
  9    1    4    326          43         253          0.0     
  9    1    6    462          50         89           0.0     
  9    1    8    81           94         57           0.0     
  9    2    1    788          41         1092         0.0     
  9    2    3    880          44         1023         0.0     
  9    2    5    531          45         362          180.0   
  9    2    7    705          69         370          180.0   
  9    3    2    407          46         7            0.0     
  9    3    4    365          40         70           180.0   
  9    3    6    434          46         134          180.0   
  9    3    8    110          113        4            180.0   
  9    4    1    253          38         173          0.0     
  9    4    3    48           57         4            0.0     
  9    4    5    507          50         321          180.0   
  9    4    7    83           69         14           0.0     
  9    5    2    630          47         283          180.0   
  9    5    4    675          51         352          180.0   
  9    5    6    563          52         147          180.0   
  9    5    8    130          111        12           180.0   
  9    6    1    54           61         3            0.0     
  9    6    3    139          48         51           180.0   
  9    6    5    365          46         77           180.0   
  9    6    7    -106         115        101          0.0     
  9    7    2    426          66         131          180.0   
  9    7    4    552          69         4            180.0   
  9    7    6    208          115        23           0.0     
  9    8    1    107          94         71           0.0     
  9    8    3    82           104        118          0.0     
  9    8    5    104          97         4            180.0   
  9    9    2    202          70         17           0.0     
  9    9    4    427          71         165          0.0     
  9    9    6    155          124        103          0.0     
  10   0    0    1.630e4      2.5e2      1.649e4      0.0     
  10   0    2    1.801e4      2.7e2      1.847e4      0.0     
  10   0    4    1.556e4      2.5e2      1.628e4      0.0     
  10   0    6    2.668e4      4.9e2      2.562e4      0.0     
  10   0    8    1.332e4      3.4e2      1.378e4      0.0     
  10   1    1    366          35         259          180.0   
  10   1    3    4            53         2            180.0   
  10   1    5    149          59         108          0.0     
  10   1    7    -41          104        52           0.0     
  10   1    9    -201         108        1            180.0   
  10   2    0    2.880e4      3.8e2      3.135e4      0.0     
  10   2    2    1.719e4      2.6e2      1.777e4      0.0     
  10   2    4    1.630e4      2.6e2      1.640e4      0.0     
  10   2    6    1.748e4      3.8e2      1.516e4      0.0     
  10   2    8    1.586e4      3.8e2      1.445e4      0.0     
  10   3    1    381          40         174          180.0   
  10   3    3    196          38         55           180.0   
  10   3    5    29           60         44           0.0     
  10   3    7    36           103        118          0.0     
  10   3    9    47           102        7            0.0     
  10   4    0    2.737e4      3.8e2      2.771e4      0.0     
  10   4    2    2.500e4      3.6e2      2.548e4      0.0     
  10   4    4    1.324e4      2.4e2      1.188e4      0.0     
  10   4    6    1.349e4      3.3e2      1.112e4      0.0     
  10   4    8    8.95e3       2.3e2      8.38e3       0.0     
  10   5    1    105          64         186          0.0     
  10   5    3    132          51         57           180.0   
  10   5    5    444          52         105          180.0   
  10   5    7    123          99         3            0.0     
  10   5    9    -7           110        16           0.0     
  10   6    0    1.585e4      2.7e2      1.510e4      0.0     
  10   6    2    1.604e4      2.8e2      1.523e4      0.0     
  10   6    4    1.963e4      3.3e2      1.819e4      0.0     
  10   6    6    8.94e3       2.5e2      8.77e3       0.0     
  10   6    8    7337         183        6524         0.0     
  10   7    1    129          108        112          0.0     
  10   7    3    65           115        2            0.0     
  10   7    5    75           77         13           180.0   
  10   8    0    8.05e3       2.2e2      5.75e3       0.0     
  10   8    2    1.377e4      3.6e2      1.127e4      0.0     
  10   8    4    1.160e4      2.9e2      1.231e4      0.0     
  10   9    1    226          76         13           180.0   
  10   9    3    -7           114        17           0.0     
  10   9    5    209          122        26           0.0     
  10   10   0    7.76e3       2.2e2      7.07e3       0.0     
  10   10   2    6786         178        6741         0.0     
  10   10   4    7.16e3       2.0e2      7.56e3       0.0     
  11   1    2    834          48         765          180.0   
  11   1    4    367          42         11           180.0   
  11   1    6    132          103        154          0.0     
  11   1    8    402          76         1            180.0   
  11   1    10   429          80         15           180.0   
  11   2    1    -8           52         33           0.0     
  11   2    3    25           59         9            180.0   
  11   2    5    691          51         440          180.0   
  11   2    7    272          75         164          180.0   
  11   2    9    7            117        17           0.0     
  11   3    2    331          50         66           0.0     
  11   3    4    105          66         92           0.0     
  11   3    6    -109         118        5            180.0   
  11   3    8    310          78         81           180.0   
  11   3    10   231          118        0            180.0   
  11   4    1    100          55         7            0.0     
  11   4    3    58           51         29           180.0   
  11   4    5    188          58         187          180.0   
  11   4    7    124          112        1            180.0   
  11   4    9    117          78         45           0.0     
  11   5    2    340          56         108          0.0     
  11   5    4    321          62         16           0.0     
  11   5    6    111          103        5            180.0   
  11   5    8    29           116        0            180.0   
  11   5    10   -71          122        0            0.0     
  11   6    1    57           55         22           0.0     
  11   6    3    6            72         33           0.0     
  11   6    5    108          77         11           0.0     
  11   6    7    145          73         48           0.0     
  11   6    9    125          128        11           0.0     
  11   7    2    428          88         1            180.0   
  11   7    4    582          92         52           180.0   
  11   8    1    -109         129        44           0.0     
  11   8    3    142          117        140          0.0     
  11   8    5    168          123        37           0.0     
  11   9    2    170          82         40           0.0     
  11   9    4    410          78         19           180.0   
  11   10   1    -79          120        2            180.0   
  11   10   3    170          113        1            180.0   
  11   10   5    -181         131        0            0.0     
  11   11   2    147          121        60           0.0     
  11   11   4    -106         132        0            0.0     
  12   0    0    1.158e4      2.2e2      1.322e4      0.0     
  12   0    2    1.118e4      2.2e2      1.121e4      0.0     
  12   0    4    1.365e4      2.5e2      1.368e4      0.0     
  12   0    6    1.133e4      2.9e2      9.86e3       0.0     
  12   0    8    8.46e3       2.4e2      8.51e3       0.0     
  12   0    10   4752         161        5175         0.0     
  12   1    1    -22          61         6            0.0     
  12   1    3    37           61         10           0.0     
  12   1    5    63           67         36           0.0     
  12   1    7    14           115        0            180.0   
  12   1    9    171          114        106          180.0   
  12   1    11   113          115        43           180.0   
  12   2    0    1.174e4      2.2e2      1.209e4      0.0     
  12   2    2    1.309e4      2.4e2      1.413e4      0.0     
  12   2    4    10177        190        10465        0.0     
  12   2    6    1.190e4      3.0e2      1.026e4      0.0     
  12   2    8    6709         195        6807         0.0     
  12   2    10   5657         176        5627         0.0     
  12   3    1    120          50         216          0.0     
  12   3    3    118          65         12           180.0   
  12   3    5    51           84         1            180.0   
  12   3    7    -279         124        5            0.0     
  12   3    9    256          83         100          180.0   
  12   4    0    1.384e4      2.6e2      1.495e4      0.0     
  12   4    2    1.106e4      2.0e2      1.141e4      0.0     
  12   4    4    1.089e4      2.1e2      1.074e4      0.0     
  12   4    6    7255         194        7074         0.0     
  12   4    8    6.89e3       2.0e2      6.50e3       0.0     
  12   4    10   4279         155        4252         0.0     
  12   5    1    43           67         251          0.0     
  12   5    3    555          52         228          180.0   
  12   5    5    261          53         153          180.0   
  12   5    7    -53          118        67           0.0     
  12   5    9    41           115        39           0.0     
  12   6    0    8164         168        9445         0.0     
  12   6    2    1.073e4      2.1e2      1.061e4      0.0     
  12   6    4    8373         171        7873         0.0     
  12   6    6    7.44e3       2.0e2      7.25e3       0.0     
  12   6    8    5044         164        4673         0.0     
  12   7    1    256          139        21           180.0   
  12   7    3    203          149        71           180.0   
  12   7    5    208          92         0            0.0     
  12   8    0    8.89e3       2.6e2      7.47e3       0.0     
  12   8    2    7.54e3       2.1e2      6.36e3       0.0     
  12   8    4    7.69e3       2.2e2      6.97e3       0.0     
  12   9    1    512          102        101          180.0   
  12   9    3    202          131        12           0.0     
  12   9    5    16           132        60           0.0     
  12   10   0    5677         183        4776         0.0     
  12   10   2    5669         183        5230         0.0     
  12   10   4    4182         154        4205         0.0     
  12   11   1    62           137        4            0.0     
  13   1    2    594          54         505          180.0   
  13   1    4    382          50         72           180.0   
  13   1    6    107          116        23           0.0     
  13   1    8    212          118        0            180.0   
  13   2    1    64           65         13           180.0   
  13   2    3    -67          68         0            0.0     
  13   2    5    45           73         72           0.0     
  13   2    7    151          109        13           0.0     
  13   2    9    -109         123        9            180.0   
  13   3    2    220          55         76           0.0     
  13   3    4    276          59         89           0.0     
  13   3    6    -166         114        0            180.0   
  13   3    8    -8           127        44           180.0   
  13   4    1    28           65         17           180.0   
  13   4    3    -48          69         0            180.0   
  13   4    5    68           63         53           0.0     
  13   4    7    -32          124        1            0.0     
  13   4    9    180          134        18           180.0   
  13   5    2    257          63         133          0.0     
  13   5    4    152          80         76           0.0     
  13   5    6    190          106        5            0.0     
  13   5    8    111          129        0            0.0     
  13   6    1    22           77         14           180.0   
  13   6    3    -52          82         11           180.0   
  13   6    5    -13          83         1            0.0     
  13   6    7    147          131        3            180.0   
  13   7    2    431          86         3            180.0   
  13   7    4    352          94         23           180.0   
  13   8    1    72           137        4            180.0   
  13   8    3    103          133        12           180.0   
  13   8    5    -148         145        3            180.0   
  13   9    2    77           99         2            0.0     
  13   9    4    370          90         42           180.0   
  14   0    0    7634         156        8695         0.0     
  14   0    2    9.96e3       2.0e2      1.068e4      0.0     
  14   0    4    6932         141        7407         0.0     
  14   0    6    5123         167        4631         0.0     
  14   0    8    3000         139        3278         0.0     
  14   1    1    52           68         11           180.0   
  14   1    3    51           74         5            0.0     
  14   1    5    -41          77         23           0.0     
  14   1    7    9            116        0            0.0     
  14   2    0    7183         144        7645         0.0     
  14   2    2    6745         136        7630         0.0     
  14   2    4    7365         153        8602         0.0     
  14   2    6    4694         166        4855         0.0     
  14   2    8    4386         167        4093         0.0     
  14   3    1    50           71         0            0.0     
  14   3    3    174          70         0            0.0     
  14   3    5    -21          79         5            0.0     
  14   3    7    137          125        0            0.0     
  14   4    0    4379         105        4735         0.0     
  14   4    2    5772         124        6344         0.0     
  14   4    4    5792         126        6289         0.0     
  14   4    6    6547         183        6382         0.0     
  14   5    1    -162         78         39           0.0     
  14   5    3    47           83         17           180.0   
  14   5    5    164          83         35           180.0   
  14   6    0    5885         129        6648         0.0     
  14   6    2    4648         116        4784         0.0     
  14   6    4    5479         124        4642         0.0     
  14   6    6    4724         163        4503         0.0     
  14   7    1    125          87         0            180.0   
  14   7    3    212          124        2            180.0   
  14   8    0    6.59e3       2.0e2      6.02e3       0.0     
  14   8    2    5797         192        4986         0.0     
  15   1    2    241          60         7            0.0     
  15   1    4    130          62         1            0.0     
  15   1    6    195          126        4            0.0     
  15   2    1    78           67         28           180.0   
  15   2    3    -22          73         6            180.0   
  15   2    5    128          62         89           0.0     
  15   3    2    215          58         15           0.0     
  15   3    4    233          63         0            180.0   
  15   4    1    -41          70         7            180.0   
  15   4    3    32           62         2            0.0     
  15   4    5    -8           110        52           0.0     
  15   5    2    10           83         5            180.0   
  15   5    4    -50          94         7            180.0   
  15   6    1    105          74         4            180.0   
  16   0    0    4355         110        5621         0.0     
  16   0    2    4004         105        4666         0.0     
  16   1    1    130          60         35           180.0   
  16   1    3    86           77         0            0.0     
  16   2    0    3330         98         3941         0.0     
  16   2    2    4023         107        4771         0.0     
  16   3    1    193          80         77           180.0   
_reflns_number_total  367
_reflns_limit_h_min  2
_reflns_limit_h_max  16
_reflns_limit_k_min  0
_reflns_limit_k_max  11
_reflns_limit_l_min  0
_reflns_limit_l_max  11
_reflns_d_resolution_low    5.070
_reflns_d_resolution_high   0.619
_reflns_wR_factor_obs      0.0726
_reflns_R_F_factor_obs     0.0822
_reflns_R_Fsqd_factor_obs  0.0694
#--eof--eof--eof--eof--eof--eof--eof--eof--eof--eof--eof--eof--eof--eof--eof--#
