data_IB3_publ

_pd_block_id
  2012-05-21T14:52|IB3|rvd|cad4

_audit_creation_method  "from EXP file using GSAS2CIF"
_audit_creation_date                   2012-05-21T14:52
_audit_author_name                     rvd
_audit_update_record
; 2012-05-21T14:52  Initial CIF as created by GSAS2CIF
;

#=============================================================================
# this information describes the project, paper etc. for the CIF             #
# Acta Cryst. Section C papers and editorial correspondence is generated     #
# from the information in this section                                       #
#                                                                            #
#   (from)   CIF submission form for Rietveld refinements (Acta Cryst. C)    #
#                                                 Version 14 December 1998   #
#=============================================================================
# 1. SUBMISSION DETAILS

_publ_contact_author_name            ?   # Name of author for correspondence
_publ_contact_author_address             # Address of author for correspondence
; ?
;
_publ_contact_author_email           ?
_publ_contact_author_fax             ?
_publ_contact_author_phone           ?

_publ_contact_letter
; ?
;

_publ_requested_journal              ?
_publ_requested_coeditor_name        ?
_publ_requested_category             ?   # Acta C: one of CI/CM/CO/FI/FM/FO

#==============================================================================

# 2. PROCESSING SUMMARY (IUCr Office Use Only)

_journal_data_validation_number      ?

_journal_date_recd_electronic        ?
_journal_date_to_coeditor            ?
_journal_date_from_coeditor          ?
_journal_date_accepted               ?
_journal_date_printers_first         ?
_journal_date_printers_final         ?
_journal_date_proofs_out             ?
_journal_date_proofs_in              ?
_journal_coeditor_name               ?
_journal_coeditor_code               ?
_journal_coeditor_notes
; ?
;
_journal_techeditor_code             ?
_journal_techeditor_notes
; ?
;
_journal_coden_ASTM                  ?
_journal_name_full                   ?
_journal_year                        ?
_journal_volume                      ?
_journal_issue                       ?
_journal_page_first                  ?
_journal_page_last                   ?
_journal_paper_category              ?
_journal_suppl_publ_number           ?
_journal_suppl_publ_pages            ?

#==============================================================================

# 3. TITLE AND AUTHOR LIST

_publ_section_title
; ?
;
_publ_section_title_footnote
; ?
;

# The loop structure below should contain the names and addresses of all
# authors, in the required order of publication. Repeat as necessary.

loop_
	_publ_author_name
        _publ_author_footnote
	_publ_author_address
 ?                                   #<--'Last name, first name'
; ?
;
; ?
;

#==============================================================================

# 4. TEXT

_publ_section_synopsis
;  ?
;
_publ_section_abstract
; ?
;
_publ_section_comment
; ?
;
_publ_section_exptl_prep      # Details of the preparation of the sample(s)
                              # should be given here.
; ?
;
_publ_section_exptl_refinement
; ?
;
_publ_section_references
; ?
;
_publ_section_figure_captions
; ?
;
_publ_section_acknowledgements
; ?
;

#=============================================================================
# 5. OVERALL REFINEMENT & COMPUTING DETAILS

_refine_special_details
; ?
;
_pd_proc_ls_special_details
; ?
;

# The following items are used to identify the programs used.
_computing_molecular_graphics     ?
_computing_publication_material   ?

_refine_ls_weighting_scheme       ?
_refine_ls_weighting_details      ?
_refine_ls_hydrogen_treatment     ?
_refine_ls_extinction_method      ?
_refine_ls_extinction_coef        ?
_refine_ls_number_constraints     ?

_refine_ls_restrained_S_all       ?
_refine_ls_restrained_S_obs       ?

#==============================================================================
# 6. SAMPLE PREPARATION DATA

# (In the unusual case where multiple samples are used in a single
#  Rietveld study, this information should be moved into the phase
#  blocks)

# The following three fields describe the preparation of the material.
# The cooling rate is in K/min.  The pressure at which the sample was
# prepared is in kPa.  The temperature of preparation is in K.

_pd_prep_cool_rate                ?
_pd_prep_pressure                 ?
_pd_prep_temperature              ?

_pd_char_colour                   ?       # use ICDD colour descriptions
_refine_ls_shift/su_max                0.02
_refine_ls_shift/su_mean               0.00
_computing_structure_refinement        GSAS
_refine_ls_number_parameters           14
_refine_ls_goodness_of_fit_all         5.02
_refine_ls_number_restraints           0
_refine_ls_matrix_type                 full
#==============================================================================
# 7. CHEMICAL, STRUCTURAL AND CRYSTAL DATA

_pd_char_particle_morphology      ?

_chemical_name_systematic
; ?
;
_chemical_name_common             ?
_chemical_formula_moiety          ?
_chemical_formula_structural      ?
_chemical_formula_analytical      ?
_chemical_melting_point           ?
_chemical_compound_source         ?       # for minerals and
                                          # natural products
_symmetry_space_group_name_Hall   ?

_exptl_crystal_F_000               ?
_exptl_crystal_density_diffrn      ?
_exptl_crystal_density_meas        ?
_exptl_crystal_density_method      ?

_cell_measurement_temperature     ?

_cell_special_details
; ?
;

_geom_special_details             ?

# The following item identifies the program(s) used (if appropriate).
_computing_structure_solution     ?

#==============================================================================

# 8. Phase information from GSAS

_pd_phase_name                         H3OSbF6
_cell_length_a                         10.140(7)
_cell_length_b                         10.14
_cell_length_c                         10.14
_cell_angle_alpha                      90.0
_cell_angle_beta                       90.0
_cell_angle_gamma                      90.0
_cell_volume                           1042.6(12)
_symmetry_cell_setting                 cubic
_symmetry_space_group_name_H-M         "I b 3"
loop_ _symmetry_equiv_pos_site_id _symmetry_equiv_pos_as_xyz
       1 +x,+y,+z 
       2 +z,+x,+y 
       3 +y,+z,+x 
       4 +x,+y+1/2,-z+1/2 
       5 -z+1/2,+x,+y+1/2 
       6 +y+1/2,-z+1/2,+x 
       7 -z+1/2,+x+1/2,-y 
       8 -y,-z+1/2,+x+1/2 
       9 +y+1/2,-z,-x+1/2 
      10 -x+1/2,+y+1/2,-z 
      11 -z,-x+1/2,+y+1/2 
      12 +x+1/2,-y,-z+1/2 
      -1 -x,-y,-z 
      -2 -z,-x,-y 
      -3 -y,-z,-x 
      -4 -x,-y+1/2,+z+1/2 
      -5 +z+1/2,-x,-y+1/2 
      -6 -y+1/2,+z+1/2,-x 
      -7 +z+1/2,-x+1/2,+y 
      -8 +y,+z+1/2,-x+1/2 
      -9 -y+1/2,+z,+x+1/2 
     -10 +x+1/2,-y+1/2,+z 
     -11 +z,+x+1/2,-y+1/2 
     -12 -x+1/2,+y,+z+1/2 
     101 +x+1/2,+y+1/2,+z+1/2 
     102 +z+1/2,+x+1/2,+y+1/2 
     103 +y+1/2,+z+1/2,+x+1/2 
     104 +x+1/2,+y,-z 
     105 -z,+x+1/2,+y 
     106 +y,-z,+x+1/2 
     107 -z,+x,-y+1/2 
     108 -y+1/2,-z,+x 
     109 +y,-z+1/2,-x 
     110 -x,+y,-z+1/2 
     111 -z+1/2,-x,+y 
     112 +x,-y+1/2,-z 
    -101 -x+1/2,-y+1/2,-z+1/2 
    -102 -z+1/2,-x+1/2,-y+1/2 
    -103 -y+1/2,-z+1/2,-x+1/2 
    -104 -x+1/2,-y,+z 
    -105 +z,-x+1/2,-y 
    -106 -y,+z,-x+1/2 
    -107 +z,-x,+y+1/2 
    -108 +y+1/2,+z,-x 
    -109 -y,+z+1/2,+x 
    -110 +x,-y,+z+1/2 
    -111 +z+1/2,+x,-y 
    -112 -x,+y+1/2,+z 

# ATOMIC COORDINATES AND DISPLACEMENT PARAMETERS


loop_
      _atom_site_type_symbol
      _atom_site_label
      _atom_site_fract_x
      _atom_site_fract_y
      _atom_site_fract_z
      _atom_site_occupancy
      _atom_site_thermal_displace_type
      _atom_site_U_iso_or_equiv
      _atom_site_symmetry_multiplicity
Sb
Sb      0.0          0.0          0.0          1.0        Uani   0.01562       8
O 
O       0.25         0.25         0.25         1.0        Uani   0.03761       8
F 
F       0.0589(5)    0.1409(4)    0.3957(4)    1.0        Uani   0.02911      48

loop_ _atom_site_aniso_label
      _atom_site_aniso_U_11
      _atom_site_aniso_U_12
      _atom_site_aniso_U_13
      _atom_site_aniso_U_22
      _atom_site_aniso_U_23
      _atom_site_aniso_U_33
Sb      0.01562(28  0.00440(32  0.00440(32  0.01562(28  0.00440(32  0.01562(28
O       0.038(4)    0.016(5)    0.016(5)    0.038(4)    0.016(5)    0.038(4)  
F       0.0368(27) -0.0043(23)  0.0104(23)  0.0230(22)  0.0048(21)  0.0276(23)
 
# If you change Z, be sure to change all 3 of the following
_chemical_formula_sum                  "F6 O Sb"
_chemical_formula_weight               251.74
_cell_formula_units_Z                  8

# MOLECULAR GEOMETRY

loop_
      _geom_bond_atom_site_label_1
      _geom_bond_atom_site_label_2
      _geom_bond_distance
      _geom_bond_site_symmetry_1
      _geom_bond_site_symmetry_2
      _geom_bond_publ_flag
   ?   ?   ?   ?   ?   ?

loop_
      _geom_angle_atom_site_label_1
      _geom_angle_atom_site_label_2
      _geom_angle_atom_site_label_3
      _geom_angle
      _geom_angle_site_symmetry_1
      _geom_angle_site_symmetry_2
      _geom_angle_site_symmetry_3
      _geom_angle_publ_flag
   ?   ?   ?   ?   ?   ?   ?   ?

loop_
      _refln_index_h
      _refln_index_k
      _refln_index_l
      _refln_observed_status
      _refln_F_squared_meas
      _refln_F_squared_calc
      _refln_phase_calc
   2   0   0 o   136200(1500)  177146.   0.00 
   2   1   1 o   240(13)       56.       0.00 
   2   2   0 o   144400(1800)  156816.   0.00 
   2   2   2 o   78090(850)    73610.    0.00 
   3   1   2 o   178(16)       58.      180.00
   3   2   1 o   7136(98)      6150.    180.00
   3   3   2 o   14600(180)    13219.   180.00
   4   0   0 o   32930(350)    33759.    0.00 
   4   0   2 o   43810(480)    46266.    0.00 
   4   1   1 o   7920(110)     7759.     0.00 
   4   1   3 o   1124(26)      1010.    180.00
   4   2   0 o   33580(380)    32244.    0.00 
   4   2   2 o   105300(1100)  100737.   0.00 
   4   3   1 o   6232(96)      5521.     0.00 
   4   3   3 o   1183(30)      1118.    180.00
   4   4   0 o   105300(1200)  115560.   0.00 
   4   4   2 o   74590(800)    75342.    0.00 
   4   4   4 o   72470(870)    71566.    0.00 
   5   1   2 o   264(21)       70.       0.00 
   5   1   4 o   1498(36)      1477.    180.00
   5   2   1 o   1565(31)      1503.    180.00
   5   2   3 o   672(29)       472.     180.00
   5   3   2 o   1268(34)      1104.    180.00
   5   3   4 o   290(32)       171.     180.00
   5   4   1 o   2403(47)      2478.    180.00
   5   4   3 o   1650(40)      1686.    180.00
   5   5   2 o   480(29)       338.      0.00 
   5   5   4 o   1005(37)      886.      0.00 
   6   0   0 o   33570(370)    33853.    0.00 
   6   0   2 o   82080(880)    88305.    0.00 
   6   0   4 o   64730(730)    71376.    0.00 
   6   1   1 o   2194(41)      2316.     0.00 
   6   1   3 o   208(27)       111.      0.00 
   6   1   5 o   1042(36)      1091.    180.00
   6   2   0 o   60770(680)    65899.    0.00 
   6   2   2 o   52970(590)    54421.    0.00 
   6   2   4 o   64270(710)    64560.    0.00 
   6   3   1 o   943(32)       755.      0.00 
   6   3   3 o   733(32)       679.      0.00 
   6   3   5 o   314(30)       313.     180.00
   6   4   0 o   44560(540)    43429.    0.00 
   6   4   2 o   53890(610)    51023.    0.00 
   6   4   4 o   26220(320)    26162.    0.00 
   6   5   1 o   3644(67)      3973.    180.00
   6   5   3 o   798(36)       572.      0.00 
   6   5   5 o   622(36)       393.      0.00 
   6   6   0 o   36940(450)    38858.    0.00 
   6   6   2 o   25680(330)    24195.    0.00 
   6   6   4 o   31390(380)    31223.    0.00 
   6   6   6 o   28280(490)    27320.    0.00 
   7   1   2 o   2921(62)      2801.     0.00 
   7   1   4 o   923(41)       563.     180.00
   7   1   6 o   1940(57)      2247.    180.00
   7   2   1 o   1432(45)      1374.     0.00 
   7   2   3 o   4582(95)      4537.     0.00 
   7   2   5 o   1293(50)      1218.     0.00 
   7   3   2 o   279(42)        8.      180.00
   7   3   4 o   365(42)       351.     180.00
   7   3   6 o   405(56)       104.     180.00
   7   4   1 <   27(43)        47.      180.00
   7   4   3 o   170(39)       27.       0.00 
   7   4   5 o   184(47)       132.      0.00 
   7   5   2 o   324(37)       180.     180.00
   7   5   4 <   51(45)        19.      180.00
   7   5   6 o   275(54)        0.       0.00 
   7   6   1 o   482(40)       426.     180.00
   7   6   3 o   1821(57)      1907.    180.00
   7   6   5 o   435(46)       428.     180.00
   7   7   2 o   333(61)       156.     180.00
   7   7   4 o   372(61)       11.       0.00 
   7   7   6 o   509(69)       49.      180.00
   8   0   0 o   53020(610)    55673.    0.00 
   8   0   2 o   40170(500)    37332.    0.00 
   8   0   4 o   42230(530)    42215.    0.00 
   8   0   6 o   26280(370)    26447.    0.00 
   8   1   1 o   569(36)       616.     180.00
   8   1   3 <   56(51)        35.      180.00
   8   1   5 <    6(51)         4.       0.00 
   8   1   7 <   71(85)         3.      180.00
   8   2   0 o   45840(540)    46261.    0.00 
   8   2   2 o   45850(550)    44473.    0.00 
   8   2   4 o   24120(340)    21906.    0.00 
   8   2   6 o   29290(400)    26894.    0.00 
   8   3   1 o   2435(60)      2633.    180.00
   8   3   3 o   209(42)       30.       0.00 
   8   3   5 <   42(43)         1.       0.00 
   8   3   7 <   66(64)        49.      180.00
   8   4   0 o   42940(540)    42531.    0.00 
   8   4   2 o   25000(360)    24441.    0.00 
   8   4   4 o   25160(370)    22159.    0.00 
   8   4   6 o   20840(330)    18424.    0.00 
   8   5   1 o   689(44)       809.     180.00
   8   5   3 o   228(47)       196.      0.00 
   8   5   5 <   13(60)         3.       0.00 
   8   5   7 o   531(74)       770.     180.00
   8   6   0 o   15170(260)    14317.    0.00 
   8   6   2 o   24730(370)    23646.    0.00 
   8   6   4 o   23130(340)    23279.    0.00 
   8   6   6 o   23680(360)    22938.    0.00 
   8   7   1 < -26.379          1.084   180.00
   8   7   3 <   29(78)         5.       0.00 
   8   7   5 o   307(71)       265.     180.00
   8   8   0 o   19130(400)    17014.    0.00 
   8   8   2 o   18450(400)    17273.    0.00 
   8   8   4 o   23420(460)    22734.    0.00 
   8   8   6 o   12510(300)    11851.    0.00 
   9   1   2 o   502(38)       425.      0.00 
   9   1   4 o   337(44)       21.       0.00 
   9   1   6 o   485(52)       21.      180.00
   9   1   8 <    90(100)       15.     180.00
   9   2   1 o   813(42)       860.      0.00 
   9   2   3 o   907(45)       846.      0.00 
   9   2   5 o   550(46)       571.     180.00
   9   2   7 o   732(72)       554.     180.00
   9   3   2 o   426(48)       52.      180.00
   9   3   4 o   386(42)       305.     180.00
   9   3   6 o   462(49)       376.     180.00
   9   3   8 <   130(130)      354.     180.00
   9   4   1 o   261(39)       190.      0.00 
   9   4   3 <   50(60)        16.      180.00
   9   4   5 o   527(52)       580.     180.00
   9   4   7 <   87(73)        16.      180.00
   9   5   2 o   656(49)       675.     180.00
   9   5   4 o   708(53)       683.     180.00
   9   5   6 o   595(55)       515.     180.00
   9   5   8 <   140(120)      354.     180.00
   9   6   1 <   56(64)         1.      180.00
   9   6   3 o   146(51)       65.      180.00
   9   6   5 o   383(49)       298.     180.00
   9   6   7 < -114.070        30.472    0.00 
   9   7   2 o   444(69)       266.     180.00
   9   7   4 o   579(72)       89.      180.00
   9   7   6 o   220(120)       17.     180.00
   9   8   1 <   109(95)       149.      0.00 
   9   8   3 <    80(110)       52.      0.00 
   9   8   5 <   110(100)       42.     180.00
   9   9   2 o   211(73)        1.       0.00 
   9   9   4 o   441(73)       97.       0.00 
   9   9   6 <   160(130)       18.      0.00 
  10   0   0 o   17880(270)    17606.    0.00 
  10   0   2 o   19690(300)    19013.    0.00 
  10   0   4 o   17040(280)    16805.    0.00 
  10   0   6 o   28730(530)    27270.    0.00 
  10   0   8 o   14520(370)    14880.    0.00 
  10   1   1 o   381(36)       357.     180.00
  10   1   3 <    5(59)        16.      180.00
  10   1   5 o   155(61)       23.       0.00 
  10   1   7 < -45.648         100.328   0.00 
  10   1   9 < -209.976         4.378   180.00
  10   2   0 o   31160(420)    32695.    0.00 
  10   2   2 o   18810(290)    18710.    0.00 
  10   2   4 o   17820(290)    17559.    0.00 
  10   2   6 o   18970(410)    16969.    0.00 
  10   2   8 o   17190(410)    16050.    0.00 
  10   3   1 o   401(42)       430.     180.00
  10   3   3 o   208(40)       207.     180.00
  10   3   5 <   29(61)         4.       0.00 
  10   3   7 <    40(100)       19.      0.00 
  10   3   9 <    50(110)        3.      0.00 
  10   4   0 o   29570(410)    29559.    0.00 
  10   4   2 o   27050(390)    27311.    0.00 
  10   4   4 o   14510(260)    13564.    0.00 
  10   4   6 o   14710(360)    13056.    0.00 
  10   4   8 o   9830(250)     9433.     0.00 
  10   5   1 o   107(65)        9.       0.00 
  10   5   3 o   144(56)       202.     180.00
  10   5   5 o   470(55)       457.     180.00
  10   5   7 <   130(110)       57.     180.00
  10   5   9 <  -5.312         32.073   180.00
  10   6   0 o   17280(300)    16829.    0.00 
  10   6   2 o   17470(310)    16947.    0.00 
  10   6   4 o   21230(350)    20134.    0.00 
  10   6   6 o   9840(270)     9532.     0.00 
  10   6   8 o   8060(200)     6980.     0.00 
  10   7   1 <   130(110)        0.      0.00 
  10   7   3 <    80(140)      267.     180.00
  10   7   5 <   87(90)        321.     180.00
  10   8   0 o   8850(240)     6631.     0.00 
  10   8   2 o   14950(390)    12578.    0.00 
  10   8   4 o   12660(310)    13120.    0.00 
  10   9   1 o   249(83)       326.     180.00
  10   9   3 <   4.361         271.981  180.00
  10   9   5 o   230(130)      110.     180.00
  10  10   0 o   8520(240)     7877.     0.00 
  10  10   2 o   7480(200)     7358.     0.00 
  10  10   4 o   7870(220)     8248.     0.00 
  11   1   2 o   866(49)       1053.    180.00
  11   1   4 o   388(44)       210.     180.00
  11   1   6 <   140(110)        6.     180.00
  11   1   8 o   432(82)       316.     180.00
  11   1  10 o   463(86)       425.     180.00
  11   2   1 <  -8.573         44.406    0.00 
  11   2   3 <   26(61)        63.      180.00
  11   2   5 o   713(52)       771.     180.00
  11   2   7 o   282(78)       241.     180.00
  11   2   9 <    6(97)        33.       0.00 
  11   3   2 o   346(53)        4.      180.00
  11   3   4 o   108(68)        2.       0.00 
  11   3   6 < -107.576        108.942  180.00
  11   3   8 o   337(84)       555.     180.00
  11   3  10 o   250(130)      304.     180.00
  11   4   1 o   105(57)        0.       0.00 
  11   4   3 <   60(54)        67.      180.00
  11   4   5 o   194(60)       360.     180.00
  11   4   7 <   130(120)        1.     180.00
  11   4   9 o   120(80)       16.       0.00 
  11   5   2 o   354(58)       21.       0.00 
  11   5   4 o   335(65)        2.      180.00
  11   5   6 <   120(110)      106.     180.00
  11   5   8 <    40(150)      178.     180.00
  11   5  10 < -65.330         130.670  180.00
  11   6   1 <   59(57)        32.       0.00 
  11   6   3 <    6(68)         6.       0.00 
  11   6   5 <   111(79)       22.       0.00 
  11   6   7 o   149(75)       16.       0.00 
  11   6   9 <   130(140)       12.     180.00
  11   7   2 o   447(92)        9.      180.00
  11   7   4 o   610(97)       127.     180.00
  11   8   1 < -113.920        10.632    0.00 
  11   8   3 <   140(120)      131.      0.00 
  11   8   5 <   180(130)        3.      0.00 
  11   9   2 o   176(85)       14.       0.00 
  11   9   4 o   430(81)       100.     180.00
  11  10   1 < -82.838          7.704   180.00
  11  10   3 o   180(120)       72.     180.00
  11  10   5 < -187.920        16.236   180.00
  11  11   2 <   150(130)       33.      0.00 
  11  11   4 < -109.631        34.317   180.00
  12   0   0 o   12750(240)    14032.    0.00 
  12   0   2 o   12290(240)    12304.    0.00 
  12   0   4 o   14890(280)    15488.    0.00 
  12   0   6 o   12350(320)    11041.    0.00 
  12   0   8 o   9250(260)     8778.     0.00 
  12   0  10 o   5270(180)     5646.     0.00 
  12   1   1 < -23.949         17.452    0.00 
  12   1   3 <   39(64)         0.      180.00
  12   1   5 <   65(69)        18.       0.00 
  12   1   7 <    20(120)        9.     180.00
  12   1   9 o   180(120)       98.     180.00
  12   1  11 <   120(120)      127.     180.00
  12   2   0 o   12890(240)    13220.    0.00 
  12   2   2 o   14320(260)    15253.    0.00 
  12   2   4 o   11190(210)    11655.    0.00 
  12   2   6 o   12940(330)    11457.    0.00 
  12   2   8 o   7390(220)     7423.     0.00 
  12   2  10 o   6230(190)     6404.     0.00 
  12   3   1 o   118(49)       137.      0.00 
  12   3   3 o   125(69)       79.      180.00
  12   3   5 <   56(92)        91.      180.00
  12   3   7 < -291.321         2.038   180.00
  12   3   9 o   267(86)       292.     180.00
  12   4   0 o   15090(280)    15670.    0.00 
  12   4   2 o   12130(220)    12431.    0.00 
  12   4   4 o   11910(230)    11942.    0.00 
  12   4   6 o   7990(210)     7788.     0.00 
  12   4   8 o   7570(220)     7467.     0.00 
  12   4  10 o   4740(170)     5039.     0.00 
  12   5   1 <   41(64)        19.       0.00 
  12   5   3 o   586(55)       723.     180.00
  12   5   5 o   279(57)       434.     180.00
  12   5   7 < -54.336          3.396   180.00
  12   5   9 <    40(120)        0.     180.00
  12   6   0 o   9000(190)     9354.     0.00 
  12   6   2 o   11720(230)    11666.    0.00 
  12   6   4 o   9190(190)     9239.     0.00 
  12   6   6 o   8160(220)     7782.     0.00 
  12   6   8 o   5560(180)     5123.     0.00 
  12   7   1 o   280(150)      434.     180.00
  12   7   3 <   220(160)      565.     180.00
  12   7   5 o   220(100)      148.     180.00
  12   8   0 o   9690(280)     8058.     0.00 
  12   8   2 o   8260(230)     7157.     0.00 
  12   8   4 o   8410(240)     7971.     0.00 
  12   9   1 o   550(110)      677.     180.00
  12   9   3 o   220(140)      152.     180.00
  12   9   5 <    20(150)        8.     180.00
  12  10   0 o   6240(200)     5895.     0.00 
  12  10   2 o   6230(200)     6119.     0.00 
  12  10   4 o   4630(170)     4562.     0.00 
  12  11   1 <    80(170)      157.     180.00
  13   1   2 o   617(56)       765.     180.00
  13   1   4 o   404(52)       282.     180.00
  13   1   6 <   120(130)       65.     180.00
  13   1   8 o   230(130)      268.     180.00
  13   2   1 <   67(67)         6.      180.00
  13   2   3 < -70.376          1.807    0.00 
  13   2   5 <   46(74)        34.       0.00 
  13   2   7 <   160(110)       18.      0.00 
  13   2   9 < -114.008         2.379   180.00
  13   3   2 o   228(57)       16.       0.00 
  13   3   4 o   287(61)        4.       0.00 
  13   3   6 < -166.640        121.552  180.00
  13   3   8 <   3.427         388.218  180.00
  13   4   1 <   29(68)        13.      180.00
  13   4   3 < -50.405          7.474   180.00
  13   4   5 <   68(63)        77.       0.00 
  13   4   7 < -33.578          0.293    0.00 
  13   4   9 <   190(140)       70.     180.00
  13   5   2 o   263(65)      100.       0.00 
  13   5   4 o   157(83)        3.       0.00 
  13   5   6 o   200(110)       82.     180.00
  13   5   8 <   120(140)      124.     180.00
  13   6   1 <   23(78)        57.      180.00
  13   6   3 < -53.916         20.492   180.00
  13   6   5 < -13.656          0.088   180.00
  13   6   7 <   150(140)       25.     180.00
  13   7   2 o   450(90)        8.      180.00
  13   7   4 o   370(99)       152.     180.00
  13   8   1 <    80(140)       10.     180.00
  13   8   3 <   110(140)       84.     180.00
  13   8   5 < -153.455        22.914   180.00
  13   9   2 <    80(100)        5.     180.00
  13   9   4 o   388(95)       185.     180.00
  14   0   0 o   8420(170)     9570.     0.00 
  14   0   2 o   10880(220)    12100.    0.00 
  14   0   4 o   7650(160)     8846.     0.00 
  14   0   6 o   5650(190)     5026.     0.00 
  14   0   8 o   3360(160)     3273.     0.00 
  14   1   1 <   54(71)        19.      180.00
  14   1   3 <   54(77)         0.      180.00
  14   1   5 < -43.116          0.254    0.00 
  14   1   7 <    10(120)        0.     180.00
  14   2   0 o   7920(160)     8459.     0.00 
  14   2   2 o   7460(150)     8528.     0.00 
  14   2   4 o   8100(170)     9423.     0.00 
  14   2   6 o   5210(180)     5289.     0.00 
  14   2   8 o   4840(180)     4697.     0.00 
  14   3   1 <   54(76)        28.      180.00
  14   3   3 o   184(74)       69.      180.00
  14   3   5 < -21.219         11.468   180.00
  14   3   7 <   140(130)       32.     180.00
  14   4   0 o   4900(120)     5060.     0.00 
  14   4   2 o   6390(140)     6740.     0.00 
  14   4   4 o   6390(140)     6712.     0.00 
  14   4   6 o   7170(200)     7184.     0.00 
  14   5   1 < -166.055        41.214   180.00
  14   5   3 <   55(97)        191.     180.00
  14   5   5 o   176(89)       184.     180.00
  14   6   0 o   6490(140)     6802.     0.00 
  14   6   2 o   5160(130)     5284.     0.00 
  14   6   4 o   6020(140)     5583.     0.00 
  14   6   6 o   5200(180)     5246.     0.00 
  14   7   1 <   139(97)       228.     180.00
  14   7   3 o   230(130)      145.     180.00
  14   8   0 o   7180(220)     6934.     0.00 
  14   8   2 o   6340(210)     5936.     0.00 
  15   1   2 o   252(63)        0.       0.00 
  15   1   4 o   138(66)       15.      180.00
  15   1   6 o   210(140)       62.     180.00
  15   2   1 <   81(70)        13.      180.00
  15   2   3 < -23.239          0.473   180.00
  15   2   5 o   131(64)       99.       0.00 
  15   3   2 o   224(60)        1.       0.00 
  15   3   4 o   246(66)       80.      180.00
  15   4   1 < -43.321         24.664   180.00
  15   4   3 <   33(65)         1.       0.00 
  15   4   5 < -10.086         45.703    0.00 
  15   5   2 <   11(95)        34.      180.00
  15   5   4 < -49.114         169.674  180.00
  15   6   1 <   110(78)        9.      180.00
  16   0   0 o   4830(120)     5676.     0.00 
  16   0   2 o   4450(120)     5121.     0.00 
  16   1   1 o   135(62)       83.      180.00
  16   1   3 <   90(80)         4.      180.00
  16   2   0 o   3730(110)     4407.     0.00 
  16   2   2 o   4470(120)     5244.     0.00 
  16   3   1 o   203(85)       277.     180.00
_reflns_number_total                   259
_reflns_limit_h_min                    2
_reflns_limit_h_max                    16
_reflns_limit_k_min                    0
_reflns_limit_k_max                    11
_reflns_limit_l_min                    0
_reflns_limit_l_max                    11
_reflns_d_resolution_high              0.619
_reflns_d_resolution_low               5.070
#--eof--eof--eof--eof--eof--eof--eof--eof--eof--eof--eof--eof--eof--eof--eof--#
